version 3
run General-0-20250520-11:56:03-41410
attr configname General
attr datetime 20250520-11:56:03
attr datetimef 20250520-115603
attr experiment General
attr inifile omnetpp.ini
attr iterationvars ""
attr iterationvarsd ""
attr iterationvarsf ""
attr measurement ""
attr network UdpNetwork
attr processid 41410
attr repetition 0
attr replication #0
attr resultdir results
attr runnumber 0
attr seedset 0
config image-path ../inet4.5/images
config network UdpNetwork
config sim-time-limit 500s
config **.vector-recording true
config **.ppp[*].queue.typename DropTailQueue
config **.ppp[*].queue.packetCapacity 10
config **.client.numApps 1
config **.client.app[0].typename UdpBasicApp
config **.client.app[0].localPort -1
config **.client.app[0].sendInterval exponential(0.1s)
config **.client.app[0].messageLength 50B
config **.client.app[0].destAddresses "\"server\""
config **.client.app[0].destPort 1000
config **.server.numApps 1
config **.server.app[0].typename UdpSink
config **.server.app[0].localPort 1000
config **.udpBasicApp[*].packetSent:vector true
config **.udpSink[*].packetReceived:vector true
config **.udpSink[*].endToEndDelay:vector true

vector 0 UdpNetwork.client.ethernet encapPk:vector(packetBytes) ETV
attr interpolationmode none
attr recordingmode vector(packetBytes)
attr source encapPk
attr title "packets encapsulated, packetBytes"
vector 1 UdpNetwork.client.ethernet decapPk:vector(packetBytes) ETV
attr interpolationmode none
attr recordingmode vector(packetBytes)
attr source decapPk
attr title "packets decapsulated, packetBytes"
vector 2 UdpNetwork.client.ethernet pauseSent:vector ETV
attr recordingmode vector
attr title "pause sent"
vector 3 UdpNetwork.client.lo[0].lo rcvdPkFromHl:vector(packetBytes) ETV
attr interpolationmode none
attr recordingmode vector(packetBytes)
attr source packetReceivedFromUpper
attr title "packets received from higher layer, packetBytes"
vector 4 UdpNetwork.client.lo[0].lo passedUpPk:vector(packetBytes) ETV
attr interpolationmode none
attr recordingmode vector(packetBytes)
attr source packetSentToUpper
attr title "packets passed to higher layer, packetBytes"
vector 5 UdpNetwork.client.lo[0] packetDropInterfaceDown:vector(packetBytes) ETV
attr interpolationmode none
attr recordingmode vector(packetBytes)
attr source packetDropReasonIsInterfaceDown(packetDropped)
attr title "packet drops: interface down, packetBytes"
vector 6 UdpNetwork.client.lo[0] packetDropNoCarrier:vector(packetBytes) ETV
attr interpolationmode none
attr recordingmode vector(packetBytes)
attr source packetDropReasonIsNoCarrier(packetDropped)
attr title "packet drops: no carrier, packetBytes"
vector 7 UdpNetwork.client.eth[0].queue queueLength:vector ETV
attr autoWarmupFilter false
attr interpolationmode sample-hold
attr recordingmode vector
attr source "warmup(atomic(constant0(packetPushEnded) + count(packetPushStarted) - count(packetPulled) - count(packetRemoved) - count(packetDropped)))"
attr title "queue length"
attr unit pk
vector 8 UdpNetwork.client.eth[0].queue queueBitLength:vector ETV
attr autoWarmupFilter false
attr interpolationmode sample-hold
attr recordingmode vector
attr source "warmup(atomic(constant0(packetPushEnded) + sum(packetLength(packetPushStarted)) - sum(packetLength(packetPulled)) - sum(packetLength(packetRemoved)) - sum(packetLength(packetDropped))))"
attr title "queue bit length"
attr unit b
vector 9 UdpNetwork.client.eth[0].queue queueingTime:vector ETV
attr interpolationmode none
attr recordingmode vector
attr source queueingTime(packetPulled)
attr title "queueing times"
attr unit s
vector 10 UdpNetwork.client.eth[0].queue incomingPacketLengths:vector ETV
attr interpolationmode none
attr recordingmode vector
attr source packetLength(packetPushStarted)
attr title "incoming packet lengths"
attr unit b
vector 11 UdpNetwork.client.eth[0].queue incomingDataRate:vector ETV
attr interpolationmode linear
attr recordingmode vector
attr source throughput(packetPushStarted)
attr title "incoming datarate"
attr unit bps
vector 12 UdpNetwork.client.eth[0].queue outgoingPacketLengths:vector ETV
attr interpolationmode none
attr recordingmode vector
attr source packetLength(packetPulled)
attr title "outgoing packet lengths"
attr unit b
vector 13 UdpNetwork.client.eth[0].queue outgoingDataRate:vector ETV
attr interpolationmode linear
attr recordingmode vector
attr source throughput(packetPulled)
attr title "outgoing datarate"
attr unit bps
vector 14 UdpNetwork.client.eth[0].queue droppedPacketLengthsQueueOverflow:vector ETV
attr interpolationmode none
attr recordingmode vector
attr source packetLength(packetDropReasonIsQueueOverflow(packetDropped))
attr title "dropped packet lengths: queue overflow"
attr unit b
vector 15 UdpNetwork.client.eth[0].queue flowQueueingTime:vector ETV
attr interpolationmode none
attr recordingmode vector
attr source queueingTime(demuxFlow(packetPulled))
attr title "flow queueing times"
attr unit s
vector 16 UdpNetwork.client.eth[0].queue flowIncomingDataRate:vector ETV
attr interpolationmode linear
attr recordingmode vector
attr source throughput(flowPacketLength(demuxFlow(packetPushStarted)))
attr title "flow specific incoming data rate"
attr unit bps
vector 17 UdpNetwork.client.eth[0].queue flowOutgoingDataRate:vector ETV
attr interpolationmode linear
attr recordingmode vector
attr source throughput(flowPacketLength(demuxFlow(packetPulled)))
attr title "flow specific outgoing data rate"
attr unit bps
vector 18 UdpNetwork.client.eth[0].mac txPk:vector(packetBytes) ETV
attr interpolationmode none
attr recordingmode vector(packetBytes)
attr source packetSentToLower
attr title "packets transmitted, packetBytes"
vector 19 UdpNetwork.client.eth[0].mac rxPkOk:vector(packetBytes) ETV
attr interpolationmode none
attr recordingmode vector(packetBytes)
attr source rxPkOk
attr title "packets received OK, packetBytes"
vector 20 UdpNetwork.client.eth[0].mac passedUpPk:vector(packetBytes) ETV
attr interpolationmode none
attr recordingmode vector(packetBytes)
attr source packetSentToUpper
attr title "packets passed to higher layer, packetBytes"
vector 21 UdpNetwork.client.eth[0].mac txPausePkUnits:vector ETV
attr interpolationmode none
attr recordingmode vector
attr title "pause units sent"
vector 22 UdpNetwork.client.eth[0].mac rxPausePkUnits:vector ETV
attr interpolationmode none
attr recordingmode vector
attr title "pause units received"
vector 23 UdpNetwork.client.eth[0].mac packetReceivedFromUpper:vector(packetBytes) ETV
attr interpolationmode none
attr recordingmode vector(packetBytes)
attr source packetReceivedFromUpper
attr title "packet bytes from higher layer, packetBytes"
vector 24 UdpNetwork.client.eth[0].mac packetDropIncorrectlyReceived:vector(packetBytes) ETV
attr interpolationmode none
attr recordingmode vector(packetBytes)
attr source packetDropReasonIsIncorrectlyReceived(packetDropped)
attr title "packet drop: incorrectly received, packetBytes"
vector 25 UdpNetwork.client.eth[0].mac packetDropInterfaceDown:vector(packetBytes) ETV
attr interpolationmode none
attr recordingmode vector(packetBytes)
attr source packetDropReasonIsInterfaceDown(packetDropped)
attr title "packet drop: interface down, packetBytes"
vector 26 UdpNetwork.client.eth[0].mac packetDropNotAddressedToUs:vector(packetBytes) ETV
attr interpolationmode none
attr recordingmode vector(packetBytes)
attr source packetDropReasonIsNotAddressedToUs(packetDropped)
attr title "packet drop: not addressed to us, packetBytes"
vector 27 UdpNetwork.client.eth[0] packetDropInterfaceDown:vector(packetBytes) ETV
attr interpolationmode none
attr recordingmode vector(packetBytes)
attr source packetDropReasonIsInterfaceDown(packetDropped)
attr title "packet drops: interface down, packetBytes"
vector 28 UdpNetwork.client.eth[0] packetDropNoCarrier:vector(packetBytes) ETV
attr interpolationmode none
attr recordingmode vector(packetBytes)
attr source packetDropReasonIsNoCarrier(packetDropped)
attr title "packet drops: no carrier, packetBytes"
vector 29 UdpNetwork.client.ipv4.ip packetDropAddressResolutionFailed:vector(packetBytes) ETV
attr interpolationmode none
attr recordingmode vector(packetBytes)
attr source packetDropReasonIsAddressResolutionFailed(packetDropped)
attr title "packet drop: address resolution failed, packetBytes"
vector 30 UdpNetwork.client.ipv4.ip packetDropHopLimitReached:vector(packetBytes) ETV
attr interpolationmode none
attr recordingmode vector(packetBytes)
attr source packetDropReasonIsHopLimitReached(packetDropped)
attr title "packet drop: hop limit reached, packetBytes"
vector 31 UdpNetwork.client.ipv4.ip packetDropForwardingDisabled:vector(packetBytes) ETV
attr interpolationmode none
attr recordingmode vector(packetBytes)
attr source packetDropReasonIsForwardingDisabled(packetDropped)
attr title "packet drop: forwarding disabled, packetBytes"
vector 32 UdpNetwork.client.ipv4.ip packetDropNoInterfaceFound:vector(packetBytes) ETV
attr interpolationmode none
attr recordingmode vector(packetBytes)
attr source packetDropReasonIsNoInterfaceFound(packetDropped)
attr title "packet drop: no interface found, packetBytes"
vector 33 UdpNetwork.client.ipv4.ip packetDropNoRouteFound:vector(packetBytes) ETV
attr interpolationmode none
attr recordingmode vector(packetBytes)
attr source packetDropReasonIsNoRouteFound(packetDropped)
attr title "packet drop: no route found, packetBytes"
vector 34 UdpNetwork.client.ipv4.ip packetDropUndefined:vector(packetBytes) ETV
attr interpolationmode none
attr recordingmode vector(packetBytes)
attr source packetDropReasonIsUndefined(packetDropped)
attr title "packet drop: undefined, packetBytes"
vector 35 UdpNetwork.client.ipv4.arp arpRequestSent:vector(packetBytes) ETV
attr recordingmode vector(packetBytes)
attr source arpRequestSent
attr title "ARP request sent, packetBytes"
vector 36 UdpNetwork.client.ipv4.arp arpReplySent:vector(packetBytes) ETV
attr recordingmode vector(packetBytes)
attr source arpReplySent
attr title "ARP replies sent, packetBytes"
vector 37 UdpNetwork.client.udp packetSent:vector(packetBytes) ETV
attr interpolationmode none
attr recordingmode vector(packetBytes)
attr source packetSent
attr title "packets sent, packetBytes"
vector 38 UdpNetwork.client.udp packetReceived:vector(packetBytes) ETV
attr interpolationmode none
attr recordingmode vector(packetBytes)
attr source packetReceived
attr title "packets received, packetBytes"
vector 39 UdpNetwork.client.udp passedUpPk:vector(count) ETV
attr interpolationmode none
attr recordingmode vector(count)
attr source packetSentToUpper
attr title "packets passed up, count"
vector 40 UdpNetwork.client.udp droppedPkWrongPort:vector(count) ETV
attr interpolationmode none
attr recordingmode vector(count)
attr source packetDropReasonIsNoPortFound(packetDropped)
attr title "packets dropped (wrong port), count"
vector 41 UdpNetwork.client.udp droppedPkBadChecksum:vector(count) ETV
attr interpolationmode none
attr recordingmode vector(count)
attr source packetDropReasonIsIncorrectlyReceived(packetDropped)
attr title "packets dropped (checksum error), count"
vector 42 UdpNetwork.client.app[0] packetReceived:vector(packetBytes) ETV
attr interpolationmode none
attr recordingmode vector(packetBytes)
attr source packetReceived
attr title "packets received, packetBytes"
vector 43 UdpNetwork.client.app[0] throughput:vector ETV
attr recordingmode vector
attr source throughput(packetReceived)
attr title throughput
attr unit bps
vector 44 UdpNetwork.client.app[0] packetSent:vector(packetBytes) ETV
attr interpolationmode none
attr recordingmode vector(packetBytes)
attr source packetSent
attr title "packets sent, packetBytes"
vector 45 UdpNetwork.client.app[0] rcvdPkLifetime:vector ETV
attr interpolationmode none
attr recordingmode vector
attr source dataAge(packetReceived)
attr title "received packet lifetime"
attr unit s
vector 46 UdpNetwork.client.app[0] rcvdPkSeqNo:vector ETV
attr interpolationmode none
attr recordingmode vector
attr source appPkSeqNo(packetReceived)
attr title "received packet sequence number"
vector 47 UdpNetwork.server.ethernet encapPk:vector(packetBytes) ETV
attr interpolationmode none
attr recordingmode vector(packetBytes)
attr source encapPk
attr title "packets encapsulated, packetBytes"
vector 48 UdpNetwork.server.ethernet decapPk:vector(packetBytes) ETV
attr interpolationmode none
attr recordingmode vector(packetBytes)
attr source decapPk
attr title "packets decapsulated, packetBytes"
vector 49 UdpNetwork.server.ethernet pauseSent:vector ETV
attr recordingmode vector
attr title "pause sent"
vector 50 UdpNetwork.server.lo[0].lo rcvdPkFromHl:vector(packetBytes) ETV
attr interpolationmode none
attr recordingmode vector(packetBytes)
attr source packetReceivedFromUpper
attr title "packets received from higher layer, packetBytes"
vector 51 UdpNetwork.server.lo[0].lo passedUpPk:vector(packetBytes) ETV
attr interpolationmode none
attr recordingmode vector(packetBytes)
attr source packetSentToUpper
attr title "packets passed to higher layer, packetBytes"
vector 52 UdpNetwork.server.lo[0] packetDropInterfaceDown:vector(packetBytes) ETV
attr interpolationmode none
attr recordingmode vector(packetBytes)
attr source packetDropReasonIsInterfaceDown(packetDropped)
attr title "packet drops: interface down, packetBytes"
vector 53 UdpNetwork.server.lo[0] packetDropNoCarrier:vector(packetBytes) ETV
attr interpolationmode none
attr recordingmode vector(packetBytes)
attr source packetDropReasonIsNoCarrier(packetDropped)
attr title "packet drops: no carrier, packetBytes"
vector 54 UdpNetwork.server.eth[0].queue queueLength:vector ETV
attr autoWarmupFilter false
attr interpolationmode sample-hold
attr recordingmode vector
attr source "warmup(atomic(constant0(packetPushEnded) + count(packetPushStarted) - count(packetPulled) - count(packetRemoved) - count(packetDropped)))"
attr title "queue length"
attr unit pk
vector 55 UdpNetwork.server.eth[0].queue queueBitLength:vector ETV
attr autoWarmupFilter false
attr interpolationmode sample-hold
attr recordingmode vector
attr source "warmup(atomic(constant0(packetPushEnded) + sum(packetLength(packetPushStarted)) - sum(packetLength(packetPulled)) - sum(packetLength(packetRemoved)) - sum(packetLength(packetDropped))))"
attr title "queue bit length"
attr unit b
vector 56 UdpNetwork.server.eth[0].queue queueingTime:vector ETV
attr interpolationmode none
attr recordingmode vector
attr source queueingTime(packetPulled)
attr title "queueing times"
attr unit s
vector 57 UdpNetwork.server.eth[0].queue incomingPacketLengths:vector ETV
attr interpolationmode none
attr recordingmode vector
attr source packetLength(packetPushStarted)
attr title "incoming packet lengths"
attr unit b
vector 58 UdpNetwork.server.eth[0].queue incomingDataRate:vector ETV
attr interpolationmode linear
attr recordingmode vector
attr source throughput(packetPushStarted)
attr title "incoming datarate"
attr unit bps
vector 59 UdpNetwork.server.eth[0].queue outgoingPacketLengths:vector ETV
attr interpolationmode none
attr recordingmode vector
attr source packetLength(packetPulled)
attr title "outgoing packet lengths"
attr unit b
vector 60 UdpNetwork.server.eth[0].queue outgoingDataRate:vector ETV
attr interpolationmode linear
attr recordingmode vector
attr source throughput(packetPulled)
attr title "outgoing datarate"
attr unit bps
vector 61 UdpNetwork.server.eth[0].queue droppedPacketLengthsQueueOverflow:vector ETV
attr interpolationmode none
attr recordingmode vector
attr source packetLength(packetDropReasonIsQueueOverflow(packetDropped))
attr title "dropped packet lengths: queue overflow"
attr unit b
vector 62 UdpNetwork.server.eth[0].queue flowQueueingTime:vector ETV
attr interpolationmode none
attr recordingmode vector
attr source queueingTime(demuxFlow(packetPulled))
attr title "flow queueing times"
attr unit s
vector 63 UdpNetwork.server.eth[0].queue flowIncomingDataRate:vector ETV
attr interpolationmode linear
attr recordingmode vector
attr source throughput(flowPacketLength(demuxFlow(packetPushStarted)))
attr title "flow specific incoming data rate"
attr unit bps
vector 64 UdpNetwork.server.eth[0].queue flowOutgoingDataRate:vector ETV
attr interpolationmode linear
attr recordingmode vector
attr source throughput(flowPacketLength(demuxFlow(packetPulled)))
attr title "flow specific outgoing data rate"
attr unit bps
vector 65 UdpNetwork.server.eth[0].mac txPk:vector(packetBytes) ETV
attr interpolationmode none
attr recordingmode vector(packetBytes)
attr source packetSentToLower
attr title "packets transmitted, packetBytes"
vector 66 UdpNetwork.server.eth[0].mac rxPkOk:vector(packetBytes) ETV
attr interpolationmode none
attr recordingmode vector(packetBytes)
attr source rxPkOk
attr title "packets received OK, packetBytes"
vector 67 UdpNetwork.server.eth[0].mac passedUpPk:vector(packetBytes) ETV
attr interpolationmode none
attr recordingmode vector(packetBytes)
attr source packetSentToUpper
attr title "packets passed to higher layer, packetBytes"
vector 68 UdpNetwork.server.eth[0].mac txPausePkUnits:vector ETV
attr interpolationmode none
attr recordingmode vector
attr title "pause units sent"
vector 69 UdpNetwork.server.eth[0].mac rxPausePkUnits:vector ETV
attr interpolationmode none
attr recordingmode vector
attr title "pause units received"
vector 70 UdpNetwork.server.eth[0].mac packetReceivedFromUpper:vector(packetBytes) ETV
attr interpolationmode none
attr recordingmode vector(packetBytes)
attr source packetReceivedFromUpper
attr title "packet bytes from higher layer, packetBytes"
vector 71 UdpNetwork.server.eth[0].mac packetDropIncorrectlyReceived:vector(packetBytes) ETV
attr interpolationmode none
attr recordingmode vector(packetBytes)
attr source packetDropReasonIsIncorrectlyReceived(packetDropped)
attr title "packet drop: incorrectly received, packetBytes"
vector 72 UdpNetwork.server.eth[0].mac packetDropInterfaceDown:vector(packetBytes) ETV
attr interpolationmode none
attr recordingmode vector(packetBytes)
attr source packetDropReasonIsInterfaceDown(packetDropped)
attr title "packet drop: interface down, packetBytes"
vector 73 UdpNetwork.server.eth[0].mac packetDropNotAddressedToUs:vector(packetBytes) ETV
attr interpolationmode none
attr recordingmode vector(packetBytes)
attr source packetDropReasonIsNotAddressedToUs(packetDropped)
attr title "packet drop: not addressed to us, packetBytes"
vector 74 UdpNetwork.server.eth[0] packetDropInterfaceDown:vector(packetBytes) ETV
attr interpolationmode none
attr recordingmode vector(packetBytes)
attr source packetDropReasonIsInterfaceDown(packetDropped)
attr title "packet drops: interface down, packetBytes"
vector 75 UdpNetwork.server.eth[0] packetDropNoCarrier:vector(packetBytes) ETV
attr interpolationmode none
attr recordingmode vector(packetBytes)
attr source packetDropReasonIsNoCarrier(packetDropped)
attr title "packet drops: no carrier, packetBytes"
vector 76 UdpNetwork.server.ipv4.ip packetDropAddressResolutionFailed:vector(packetBytes) ETV
attr interpolationmode none
attr recordingmode vector(packetBytes)
attr source packetDropReasonIsAddressResolutionFailed(packetDropped)
attr title "packet drop: address resolution failed, packetBytes"
vector 77 UdpNetwork.server.ipv4.ip packetDropHopLimitReached:vector(packetBytes) ETV
attr interpolationmode none
attr recordingmode vector(packetBytes)
attr source packetDropReasonIsHopLimitReached(packetDropped)
attr title "packet drop: hop limit reached, packetBytes"
vector 78 UdpNetwork.server.ipv4.ip packetDropForwardingDisabled:vector(packetBytes) ETV
attr interpolationmode none
attr recordingmode vector(packetBytes)
attr source packetDropReasonIsForwardingDisabled(packetDropped)
attr title "packet drop: forwarding disabled, packetBytes"
vector 79 UdpNetwork.server.ipv4.ip packetDropNoInterfaceFound:vector(packetBytes) ETV
attr interpolationmode none
attr recordingmode vector(packetBytes)
attr source packetDropReasonIsNoInterfaceFound(packetDropped)
attr title "packet drop: no interface found, packetBytes"
vector 80 UdpNetwork.server.ipv4.ip packetDropNoRouteFound:vector(packetBytes) ETV
attr interpolationmode none
attr recordingmode vector(packetBytes)
attr source packetDropReasonIsNoRouteFound(packetDropped)
attr title "packet drop: no route found, packetBytes"
vector 81 UdpNetwork.server.ipv4.ip packetDropUndefined:vector(packetBytes) ETV
attr interpolationmode none
attr recordingmode vector(packetBytes)
attr source packetDropReasonIsUndefined(packetDropped)
attr title "packet drop: undefined, packetBytes"
vector 82 UdpNetwork.server.ipv4.arp arpRequestSent:vector(packetBytes) ETV
attr recordingmode vector(packetBytes)
attr source arpRequestSent
attr title "ARP request sent, packetBytes"
vector 83 UdpNetwork.server.ipv4.arp arpReplySent:vector(packetBytes) ETV
attr recordingmode vector(packetBytes)
attr source arpReplySent
attr title "ARP replies sent, packetBytes"
vector 84 UdpNetwork.server.udp packetSent:vector(packetBytes) ETV
attr interpolationmode none
attr recordingmode vector(packetBytes)
attr source packetSent
attr title "packets sent, packetBytes"
vector 85 UdpNetwork.server.udp packetReceived:vector(packetBytes) ETV
attr interpolationmode none
attr recordingmode vector(packetBytes)
attr source packetReceived
attr title "packets received, packetBytes"
vector 86 UdpNetwork.server.udp passedUpPk:vector(count) ETV
attr interpolationmode none
attr recordingmode vector(count)
attr source packetSentToUpper
attr title "packets passed up, count"
vector 87 UdpNetwork.server.udp droppedPkWrongPort:vector(count) ETV
attr interpolationmode none
attr recordingmode vector(count)
attr source packetDropReasonIsNoPortFound(packetDropped)
attr title "packets dropped (wrong port), count"
vector 88 UdpNetwork.server.udp droppedPkBadChecksum:vector(count) ETV
attr interpolationmode none
attr recordingmode vector(count)
attr source packetDropReasonIsIncorrectlyReceived(packetDropped)
attr title "packets dropped (checksum error), count"
vector 89 UdpNetwork.server.app[0] packetReceived:vector(packetBytes) ETV
attr interpolationmode none
attr recordingmode vector(packetBytes)
attr source packetReceived
attr title "packets received, packetBytes"
vector 90 UdpNetwork.server.app[0] throughput:vector ETV
attr recordingmode vector
attr source throughput(packetReceived)
attr title throughput
attr unit bps
vector 91 UdpNetwork.server.app[0] endToEndDelay:vector ETV
attr interpolationmode none
attr recordingmode vector
attr source dataAge(packetReceived)
attr title "end-to-end delay"
attr unit s
vector 92 UdpNetwork.server.app[0] rcvdPkSeqNo:vector ETV
attr interpolationmode none
attr recordingmode vector
attr source appPkSeqNo(packetReceived)
attr title "received packet sequence number"
0	8	0.079587450457	28
0	22	0.081598970457	78
0	34	0.205180526262	78
0	46	0.297502839409	78
0	58	0.376222953407	78
0	70	0.431327802074	78
0	82	0.53514373214	78
0	94	0.592695651828	78
0	106	0.815048094032	78
0	118	1.146539322025	78
0	130	1.19489953252	78
0	142	1.351789144282	78
0	154	1.427056555613	78
0	166	1.510999840903	78
0	178	1.770825249488	78
0	190	1.778193785035	78
0	202	1.787309887647	78
0	214	1.789352446487	78
0	226	1.968101212831	78
0	238	2.118679638695	78
0	250	2.322711064489	78
0	262	2.707233251403	78
0	274	2.867757207109	78
0	286	2.929650153072	78
0	298	3.081303750471	78
0	310	3.093891191415	78
0	322	3.19603437885	78
0	334	3.2115073469	78
0	346	3.500949394699	78
0	358	3.574732123875	78
0	370	3.628288695898	78
0	382	3.659016731113	78
0	394	3.807842213688	78
0	406	3.868750456006	78
0	418	3.952783926567	78
0	430	3.954680783487	78
0	442	4.050818877394	78
0	454	4.145518545111	78
0	466	4.241473342848	78
0	478	4.529264844976	78
0	490	4.643778740446	78
0	502	4.688330589951	78
0	514	4.745783830625	78
0	526	4.865394610571	78
0	538	4.871606139618	78
0	550	4.981497386373	78
0	562	5.092557130942	78
0	574	5.11617780155	78
0	586	5.129980670393	78
0	598	5.167876866821	78
0	610	5.213087072843	78
0	622	5.297529852196	78
0	634	5.355262283277	78
0	646	5.800711967895	78
0	658	5.811475478711	78
0	670	5.834905630589	78
0	682	5.852496985132	78
0	694	5.958371256641	78
0	706	5.987579309968	78
0	718	6.050373468067	78
0	730	6.078401168915	78
0	742	6.09571391453	78
0	754	6.107409455509	78
0	766	6.214216675224	78
0	778	6.229087902149	78
0	790	6.2509759618	78
0	802	6.296977357574	78
0	814	6.469010523346	78
0	826	6.479225011498	78
0	838	6.661206903426	78
0	850	6.671310380957	78
0	862	7.046213526915	78
0	874	7.109447186555	78
0	886	7.485639915005	78
0	898	7.578487764695	78
0	910	7.71291229191	78
0	922	7.716909921816	78
0	934	7.750150945912	78
0	946	7.762956622443	78
0	958	7.798074231381	78
0	970	7.810713095024	78
0	982	7.84898318991	78
0	994	7.902471627486	78
0	1006	7.909101367634	78
0	1018	8.027020320341	78
0	1030	8.110630073538	78
0	1042	8.141471557548	78
0	1054	8.215547452593	78
0	1066	8.225412483435	78
0	1078	8.311202047542	78
0	1090	8.57612764041	78
0	1102	8.61448366182	78
0	1114	8.724568252829	78
0	1126	8.738701324185	78
0	1138	8.864694705196	78
0	1150	8.898860121899	78
0	1162	8.919095165756	78
0	1174	9.007408069952	78
0	1186	9.009439315832	78
0	1198	9.186013423073	78
0	1205	9.186484077122	78
0	1222	9.299747491319	78
0	1234	9.331219657404	78
0	1246	9.464095444779	78
0	1258	9.79160976255	78
0	1270	9.820211859801	78
0	1282	9.906051156584	78
0	1294	9.995710243663	78
0	1306	10.080632324819	78
0	1318	10.105874324108	78
0	1330	10.411102489796	78
0	1342	10.470364892541	78
0	1354	10.657710880527	78
0	1366	10.777934737252	78
0	1378	10.813236750579	78
0	1390	10.981328971034	78
0	1402	11.031830845809	78
0	1414	11.244780785416	78
0	1426	11.331834368049	78
0	1438	11.545317413047	78
0	1450	11.663255706411	78
0	1462	11.792446633291	78
0	1474	11.862026579381	78
0	1486	12.174573415147	78
0	1498	12.277853116212	78
0	1510	12.332992715225	78
0	1522	12.426233003266	78
0	1534	12.428170981401	78
0	1546	12.464063702988	78
0	1558	12.571995722854	78
0	1570	12.606255685324	78
0	1582	12.702493190901	78
0	1594	12.758489297908	78
0	1606	12.773046695753	78
0	1618	12.808469108978	78
0	1630	12.892857956237	78
0	1642	12.982230864068	78
0	1654	13.067638837632	78
0	1666	13.17353977617	78
0	1678	13.279124737036	78
0	1690	13.335585787148	78
0	1702	13.562449186417	78
0	1714	13.608266474813	78
0	1726	13.665512629956	78
0	1738	13.888004095679	78
0	1750	14.052093853472	78
0	1762	14.173795803006	78
0	1774	14.184357067369	78
0	1786	14.436285280377	78
0	1798	14.561546032868	78
0	1810	15.238085084862	78
0	1822	15.254272093533	78
0	1834	15.456862975243	78
0	1846	15.474595532758	78
0	1858	15.57019217515	78
0	1870	15.583410546111	78
0	1882	15.77180343477	78
0	1894	15.936475344903	78
0	1906	16.020663441076	78
0	1918	16.072950444085	78
0	1930	16.080117982516	78
0	1942	16.199661839144	78
0	1954	16.260091746329	78
0	1966	16.38812516671	78
0	1978	16.589402440331	78
0	1990	16.960398499521	78
0	2002	17.15405622327	78
0	2014	17.155234546462	78
0	2026	17.199859828514	78
0	2038	17.330789664916	78
0	2050	17.349619162438	78
0	2062	17.423232272437	78
0	2074	17.428819277726	78
0	2086	17.451133198536	78
0	2098	17.453002745578	78
0	2110	17.610844017789	78
0	2122	17.636194588303	78
0	2134	17.678560298439	78
0	2146	17.941782184694	78
0	2158	18.063661865028	78
0	2170	18.066897545493	78
0	2182	18.084893279648	78
0	2194	18.182041495457	78
0	2206	18.268133859125	78
0	2218	18.295300666159	78
0	2230	18.56743549175	78
0	2242	18.662618462504	78
0	2254	18.739326427961	78
0	2266	18.828464285652	78
0	2278	18.959442822788	78
0	2290	18.996831472378	78
0	2302	19.047617984647	78
0	2314	19.071170441989	78
0	2326	19.091773646837	78
0	2338	19.380681206027	78
0	2350	19.51521594935	78
0	2362	19.582640406314	78
0	2374	19.608441682708	78
0	2386	19.6377924479	78
0	2398	19.643770544192	78
0	2410	19.700760300723	78
0	2422	19.738127280162	78
0	2434	19.857313090527	78
0	2446	19.90475471956	78
0	2458	19.924551493093	78
0	2470	19.927050328424	78
0	2482	19.934012095531	78
0	2494	20.047765946085	78
0	2506	20.108224067919	78
0	2518	20.185136048029	78
0	2530	20.412120049607	78
0	2542	20.876085302244	78
0	2554	20.900534404448	78
0	2566	21.009324847809	78
0	2578	21.03988533799	78
0	2590	21.041972059851	78
0	2602	21.18401040541	78
0	2614	21.222579174815	78
0	2626	21.270943013564	78
0	2638	21.359693206412	78
0	2650	21.537507540095	78
0	2662	21.636657969385	78
0	2674	21.842740093473	78
0	2686	21.87469755896	78
0	2698	22.034669503144	78
0	2710	22.055204280018	78
0	2722	22.360522746977	78
0	2734	22.47683407532	78
0	2746	22.501105924687	78
0	2758	22.795553952429	78
0	2770	22.926804751726	78
0	2782	22.956099897575	78
0	2794	22.980092249519	78
0	2806	23.053115016043	78
0	2818	23.055714790562	78
0	2830	23.0789672924	78
0	2842	23.134251129465	78
0	2854	23.181118777063	78
0	2866	23.243401708039	78
0	2878	23.275923309837	78
0	2890	23.36430187544	78
0	2902	23.563705795568	78
0	2914	23.57620905456	78
0	2926	23.649061438833	78
0	2938	23.663225642313	78
0	2950	23.789406909662	78
0	2962	23.839834902987	78
0	2974	23.923172727052	78
0	2986	23.943418603422	78
0	2998	23.95906618046	78
0	3010	24.026020239546	78
0	3022	24.069965778595	78
0	3034	24.352029373437	78
0	3046	24.49698485108	78
0	3058	24.635081160647	78
0	3070	24.869130356713	78
0	3082	24.877841215039	78
0	3094	24.958180391306	78
0	3106	25.046001899178	78
0	3118	25.37285153926	78
0	3130	25.407403497631	78
0	3142	25.434956291335	78
0	3154	25.445525008745	78
0	3166	25.447181618187	78
0	3178	25.712437469739	78
0	3190	25.82327844516	78
0	3202	25.977061316608	78
0	3214	26.010152304726	78
0	3226	26.098440359222	78
0	3238	26.105049560291	78
0	3250	26.171530335246	78
0	3262	26.550932713555	78
0	3274	26.760088370817	78
0	3286	26.80136135749	78
0	3298	27.127253455208	78
0	3310	27.153611166492	78
0	3322	27.451831234039	78
0	3334	27.735495253377	78
0	3346	27.896041129684	78
0	3358	27.995587494021	78
0	3370	28.202963640331	78
0	3382	28.23763897071	78
0	3394	28.42664914052	78
0	3406	28.522850333179	78
0	3418	28.524182857662	78
0	3430	28.566836438866	78
0	3442	28.582869848315	78
0	3454	28.983664813802	78
0	3466	29.048744548038	78